# vtk DataFile Version 3.0
particle-export-interchange (OctaneX)
ASCII
DATASET POLYDATA
POINTS 1500 float
-3.022800 -2.025700 0.106000
-2.837000 -1.982300 0.084500
-2.662000 -1.991700 0.120700
-2.438900 -1.993500 0.106700
-2.295300 -2.005200 0.089700
-2.087100 -1.970700 0.082900
-1.891700 -2.020600 0.127800
-1.760800 -1.976300 0.079800
-1.561300 -2.026700 0.116700
-1.387500 -2.024500 0.107000
-1.210700 -1.995400 0.086600
-1.018100 -1.998400 0.123500
-0.848000 -2.009300 0.101100
-0.647800 -1.994100 0.100000
-0.471200 -1.973100 0.129100
-0.319900 -1.978700 0.123100
-0.142900 -2.018700 0.118700
0.033100 -2.025100 0.071600
0.227400 -1.973600 0.077300
0.429800 -1.988600 0.097200
-3.008900 -1.804800 0.103900
-2.840200 -1.787000 0.088100
-2.655800 -1.795800 0.090500
-2.473100 -1.801500 0.102300
-2.297000 -1.809800 0.085000
-2.081900 -1.812900 0.085200
-1.896100 -1.775100 0.085500
-1.749600 -1.773000 0.124400
-1.549500 -1.817200 0.099000
-1.381000 -1.783100 0.112900
-1.216000 -1.781900 0.085500
-1.016100 -1.777900 0.127900
-0.855000 -1.789800 0.083100
-0.645100 -1.802400 0.081200
-0.477100 -1.793900 0.127200
-0.277700 -1.827000 0.101300
-0.126400 -1.797900 0.076800
0.048000 -1.783000 0.075100
0.266500 -1.789500 0.084200
0.407700 -1.826800 0.104100
-2.998500 -1.587000 0.073100
-2.802100 -1.608500 0.080900
-2.623000 -1.584700 0.108400
-2.442400 -1.606400 0.102200
-2.253500 -1.589400 0.126000
-2.128100 -1.574500 0.115700
-1.949200 -1.582600 0.074900
-1.722800 -1.578100 0.110200
-1.564300 -1.629200 0.112100
-1.384700 -1.581600 0.084400
-1.218100 -1.613900 0.083600
-1.034900 -1.594000 0.121200
-0.818400 -1.622800 0.081400
-0.679900 -1.600300 0.081700
-0.465800 -1.608500 0.097500
-0.317100 -1.600300 0.125500
-0.092400 -1.596700 0.097600
0.032500 -1.592900 0.089700
0.243200 -1.612400 0.098800
0.441600 -1.616500 0.100900
-3.030000 -1.390800 0.115800
-2.828000 -1.380900 0.095700
-2.646800 -1.392100 0.110000
-2.475200 -1.415800 0.090100
-2.291500 -1.370500 0.121800
-2.122400 -1.377200 0.082700
-1.896000 -1.387600 0.082300
-1.766200 -1.403400 0.126700
-1.559500 -1.389300 0.075800
-1.376900 -1.422100 0.120700
-1.180200 -1.415800 0.070500
-0.999900 -1.427900 0.070700
-0.837900 -1.373400 0.116600
-0.670800 -1.410900 0.079900
-0.477400 -1.410600 0.090600
-0.313000 -1.372000 0.108200
-0.146700 -1.396600 0.116000
0.063700 -1.375900 0.106100
0.242300 -1.417900 0.092900
0.406000 -1.381200 0.076600
-3.023200 -1.174600 0.127900
-2.832700 -1.175000 0.092000
-2.610600 -1.185500 0.089700
-2.437000 -1.214800 0.080500
-2.250800 -1.182200 0.118800
-2.080900 -1.199100 0.102600
-1.897000 -1.216000 0.117800
-1.734600 -1.173000 0.128900
-1.543200 -1.222600 0.090900
-1.361500 -1.196900 0.104900
-1.191600 -1.213800 0.102900
-1.009800 -1.202000 0.093900
-0.868400 -1.195800 0.104500
-0.635000 -1.194200 0.112200
-0.462700 -1.222300 0.077700
-0.299500 -1.177300 0.095400
-0.139700 -1.202800 0.086300
0.037100 -1.222300 0.090500
0.249100 -1.199400 0.091100
0.429700 -1.215300 0.096000
-3.009000 -0.992600 0.096800
-2.821500 -0.981200 0.096300
-2.661500 -1.029700 0.079500
-2.451300 -1.025300 0.084600
-2.287200 -0.975800 0.080900
-2.122400 -0.973500 0.112400
-1.945200 -0.997000 0.082000
-1.715500 -1.015600 0.083200
-1.551100 -1.021900 0.103800
-1.369800 -0.975800 0.090200
-1.222700 -0.976100 0.125300
-1.028600 -0.983000 0.118800
-0.820600 -0.985800 0.124000
-0.645700 -1.015400 0.098200
-0.497400 -0.994500 0.116900
-0.311900 -1.013600 0.098400
-0.136300 -0.990800 0.102200
0.072000 -0.996700 0.087100
0.219100 -1.007100 0.125500
0.419300 -0.989800 0.077600
-2.972300 -0.782000 0.094500
-2.846200 -0.818500 0.076000
-2.632600 -0.792500 0.088700
-2.474300 -0.827200 0.082100
-2.269100 -0.784600 0.079700
-2.104700 -0.775500 0.079400
-1.942600 -0.796200 0.076900
-1.738900 -0.791400 0.117500
-1.578000 -0.777200 0.098900
-1.392300 -0.795500 0.073700
-1.223900 -0.781200 0.120300
-1.042900 -0.803400 0.116900
-0.816300 -0.779300 0.121600
-0.635100 -0.817000 0.109200
-0.487500 -0.772300 0.129400
-0.304500 -0.782100 0.090300
-0.103100 -0.798200 0.096900
0.072900 -0.779000 0.113300
0.224500 -0.779600 0.077800
0.392300 -0.788800 0.103300
-3.025000 -0.571100 0.074700
-2.812500 -0.601700 0.081800
-2.668500 -0.577500 0.098800
-2.436900 -0.587800 0.101700
-2.303900 -0.604600 0.100500
-2.129100 -0.589900 0.088400
-1.911300 -0.611800 0.086400
-1.754400 -0.611100 0.073100
-1.585800 -0.601200 0.104200
-1.393100 -0.606800 0.105100
-1.202500 -0.625100 0.081100
-1.001000 -0.581500 0.129400
-0.865900 -0.613600 0.071100
-0.655400 -0.609900 0.088600
-0.464900 -0.608200 0.106800
-0.285400 -0.582000 0.127100
-0.092600 -0.590900 0.072800
0.080100 -0.627100 0.102400
0.231100 -0.622600 0.118100
0.400600 -0.577300 0.121500
-2.979300 -0.390200 0.079600
-2.846100 -0.403200 0.085100
-2.639100 -0.422500 0.082300
-2.459500 -0.424300 0.070200
-2.254800 -0.408900 0.103200
-2.101100 -0.400300 0.084000
-1.917800 -0.419800 0.127100
-1.725400 -0.415500 0.123600
-1.549500 -0.381400 0.107700
-1.356400 -0.421900 0.087500
-1.176300 -0.380600 0.077100
-1.006000 -0.417800 0.116600
-0.852900 -0.378700 0.079600
-0.671100 -0.394800 0.122000
-0.505500 -0.403100 0.098500
-0.284600 -0.410100 0.089300
-0.127600 -0.389900 0.088400
0.079400 -0.388900 0.091300
0.223400 -0.409800 0.109100
0.396700 -0.422700 0.116500
-3.006900 -0.214700 0.109400
-2.802500 -0.218700 0.122600
-2.617700 -0.228800 0.123000
-2.436300 -0.201600 0.086800
-2.262100 -0.217200 0.119800
-2.112700 -0.186000 0.077500
-1.912100 -0.224600 0.079900
-1.745600 -0.225300 0.107700
-1.585200 -0.174600 0.090700
-1.350400 -0.213300 0.127800
-1.180700 -0.206200 0.091100
-1.016400 -0.210400 0.128800
-0.840400 -0.199800 0.092600
-0.653200 -0.223500 0.124800
-0.476500 -0.185300 0.077700
-0.315600 -0.196300 0.082800
-0.140900 -0.196200 0.072700
0.066700 -0.180900 0.108500
0.225400 -0.173800 0.079200
0.422000 -0.198000 0.126900
-2.994100 -0.011200 0.076900
-2.812700 -0.023600 0.127400
-2.635700 -0.000200 0.128700
-2.462600 0.017100 0.102400
-2.252300 -0.016400 0.102400
-2.097700 0.006800 0.102100
-1.920000 0.025000 0.087400
-1.736600 0.000600 0.071300
-1.535600 -0.005000 0.085200
-1.355600 0.017900 0.112500
-1.176200 0.024000 0.081100
-0.991800 0.013400 0.076300
-0.849000 0.011100 0.129500
-0.674900 0.029600 0.071400
-0.450500 -0.002600 0.114300
-0.271100 0.022400 0.112300
-0.138500 -0.022900 0.091000
0.087600 0.019700 0.107500
0.236500 0.004300 0.126400
0.410700 0.025900 0.083500
-3.009100 0.185400 0.083500
-2.848300 0.211400 0.121900
-2.631000 0.227900 0.118800
-2.458700 0.209900 0.109400
-2.250800 0.203300 0.095900
-2.106700 0.196500 0.128200
-1.899500 0.198700 0.120800
-1.730300 0.229800 0.121800
-1.568200 0.224800 0.106200
-1.359600 0.193400 0.102100
-1.196900 0.222300 0.103700
-1.007300 0.186700 0.080400
-0.861200 0.189300 0.088400
-0.662100 0.192100 0.125600
-0.509100 0.185400 0.112600
-0.287500 0.182600 0.087200
-0.141600 0.174500 0.116500
0.038400 0.182000 0.078500
0.229600 0.173800 0.095300
0.422600 0.205900 0.081700
-2.980800 0.405000 0.118000
-2.820700 0.412500 0.091400
-2.664800 0.407800 0.108300
-2.464100 0.377100 0.103000
-2.253800 0.403000 0.125400
-2.074000 0.407400 0.108000
-1.938700 0.371100 0.108000
-1.742300 0.400100 0.082100
-1.550300 0.410900 0.092400
-1.355500 0.390700 0.092200
-1.171000 0.392700 0.113700
-1.003200 0.411600 0.093400
-0.865300 0.395200 0.109400
-0.662800 0.399800 0.111000
-0.460900 0.414600 0.124300
-0.317000 0.372400 0.088700
-0.105900 0.390200 0.114800
0.076100 0.371800 0.074300
0.211800 0.381400 0.100400
0.420600 0.373700 0.110900
-3.011200 0.595200 0.124100
-2.846100 0.596600 0.116400
-2.616400 0.583700 0.109100
-2.451900 0.616800 0.110900
-2.277800 0.574800 0.085300
-2.079500 0.586400 0.087500
-1.901400 0.606200 0.070200
-1.719500 0.586700 0.080100
-1.587200 0.602700 0.115200
-1.384800 0.592500 0.121200
-1.187600 0.598400 0.082500
-1.017800 0.621600 0.088800
-0.837500 0.596900 0.070600
-0.667100 0.577900 0.077800
-0.488900 0.578600 0.083300
-0.323800 0.576800 0.083500
-0.113100 0.623100 0.110000
0.079100 0.587900 0.113500
0.212600 0.573900 0.102000
0.444300 0.625300 0.074900
-2.983400 0.795800 0.096500
-2.806600 0.802700 0.120500
-2.650900 0.811500 0.124200
-2.440300 0.783900 0.093500
-2.277100 0.827600 0.128100
-2.080800 0.771000 0.094800
-1.917100 0.776200 0.074000
-1.720400 0.775700 0.079500
-1.575900 0.784700 0.110400
-1.353700 0.777900 0.102800
-1.171600 0.811500 0.072600
-0.999500 0.776200 0.102600
-0.860800 0.810500 0.088500
-0.631700 0.796900 0.093400
-0.498300 0.816100 0.089900
-0.300000 0.814300 0.092400
-0.130200 0.829800 0.072100
0.054000 0.804000 0.084600
0.268400 0.784100 0.105900
0.437800 0.791700 0.089100
-3.014500 1.016000 0.106100
-2.825600 1.017100 0.101200
-2.623300 1.011500 0.074100
-2.480200 1.026400 0.082300
-2.266300 1.008500 0.100800
-2.093700 0.986300 0.121000
-1.908200 0.993600 0.099700
-1.766100 0.972000 0.105000
-1.589600 0.987600 0.118000
-1.396200 1.020200 0.111000
-1.196800 0.973200 0.097000
-1.006200 1.015200 0.072100
-0.836500 1.013300 0.129100
-0.652700 0.990500 0.104700
-0.463000 1.004000 0.097300
-0.328000 1.001500 0.082900
-0.114000 0.993400 0.085200
0.076300 1.024600 0.080000
0.240200 1.015800 0.118300
0.407400 0.971100 0.095200
-2.994300 1.223100 0.099500
-2.830200 1.213700 0.117700
-2.631300 1.177200 0.071000
-2.471300 1.225800 0.107800
-2.279500 1.222700 0.107800
-2.087400 1.228800 0.117100
-1.936900 1.177800 0.072100
-1.723600 1.215400 0.084000
-1.575100 1.197500 0.101500
-1.371200 1.176800 0.124400
-1.186100 1.216200 0.120500
-1.038600 1.206700 0.090100
-0.812000 1.194900 0.127400
-0.656200 1.210700 0.082900
-0.496700 1.196000 0.115800
-0.311200 1.225800 0.120200
-0.139900 1.173800 0.090700
0.039100 1.223400 0.085600
0.255100 1.186400 0.122300
0.421200 1.208000 0.114300
-3.021100 1.400300 0.096700
-2.837400 1.399900 0.128100
-2.627700 1.410100 0.070500
-2.483800 1.419000 0.076600
-2.272400 1.400400 0.091500
-2.123300 1.379900 0.126000
-1.940900 1.405600 0.093100
[...]
POINT_DATA 1500
SCALARS phase int 1
LOOKUP_TABLE default
0
0
0
0
0
0
0
0
0
0
0
0
0
0
0
0
0
0
0
0
0
0
0
0
0
0
0
0
0
0
0
0
0
0
0
0
0
0
0
0
0
0
0
0
0
0
0
0
0
0
0
0
0
0
0
0
0
0
0
0
0
0
0
0
0
0
0
0
0
0
0
0
0
0
0
0
0
0
0
0
0
0
0
0
0
0
0
0
0
0
0
0
0
0
0
0
0
0
0
0
0
0
0
0
0
0
0
0
0
0
0
0
0
0
0
0
0
0
0
0
0
0
0
0
0
0
0
0
0
0
0
0
0
0
0
0
0
0
0
0
0
0
0
0
0
0
0
0
0
0
0
0
0
0
0
0
0
0
0
0
0
0
0
0
0
0
0
0
0
0
0
0
0
0
0
0
0
0
0
0
0
0
0
0
0
0
0
0
0
0
0
0
0
0
0
0
0
0
0
0
0
0
0
0
0
0
0
0
0
0
0
0
0
0
0
0
0
0
0
0
0
0
0
0
0
0
0
0
0
0
0
0
0
0
0
0
0
0
0
0
0
0
0
0
0
0
0
0
0
0
0
0
0
0
0
0
0
0
0
0
0
0
0
0
0
0
0
0
0
0
0
0
0
0
0
0
0
0
0
0
0
0
0
0
0
0
0
0
0
0
0
0
0
0
0
0
0
0
0
0
0
0
0
0
0
0
0
0
0
0
0
0
0
0
0
0
0
0
0
0
0
0
0
0
0
0
0
0
0
0
0
0
0
0
0
0
0
0
0
0
0
0
0
0
0
0
0
0
0
0
0
0
0
0
0
0
0
0
0
0
0
0
0
0
0
0
0
0
0
0
0
0
0
0
0
0
0
0
0
0
0
0
0
0
0
0
0
0
0
0
0
0
0
0
0
0
0
0
0
0
0
0
0
0
0
0
0
0
0
0
0
0
0
0
0
0
0
0
0
0
0
0
0
0
0
0
0
0
0
0
0
0
0
0
0
0
0
0
0
0
0
0
0
0
0
0
0
0
0
0
0
0
0
0
0
0
0
0
0
0
0
0
0
0
0
0
0
0
0
0
0
0
0
0
0
0
0
0
0
0
0
0
0
0
0
0
0
0
0
0
0
0
0
0
0
0
0
0
0
0
0
0
0
0
0
0
0
0
0
0
0
0
0
0
0
0
0
0
0
0
0
0
0
0
0
0
0
0
0
0
0
0
0
0
0
0
0
0
0
0
0
0
0
0
0
0
0
0
0
0
0
0
0
0
0
0
0
0
0
0
0
0
0
0
0
0
0
0
0
0
0
0
0
0
0
0
0
0
0
0
0
0
0
0
0
0
0
0
0
0
0
0
0
0
0
0
0
0
0
0
0
0
0
0
0
0
0
0
0
0
0
0
0
0
0
0
0
0
0
0
0
0
0
0
0
0
0
0
0
0
0
0
0
0
0
0
0
0
0
0
0
0
0
0
0
0
0
0
0
0
0
0
0
0
0
0
0
0
0
0
0
0
0
0
0
0
0
0
0
0
0
0
0
0
0
0
0
0
0
0
0
0
0
0
0
0
0
0
0
0
0
0
0
0
0
0
0
0
0
0
0
0
0
0
0
0
0
0
0
0
0
0
0
0
0
0
0
0
0
0
0
0
0
0
0
0
0
0
0
0
0
0
0
0
0
0
0
0
0
0
0
0
0
0
0
0
0
0
0
0
0
0
0
0
0
0
0
0
0
0
0
0
0
0
0
0
0
0
0
0
0
0
0
0
0
0
0
0
0
0
0
0
0
0
0
0
0
0
0
0
0
0
0
0
0
0
0
0
0
0
0
0
0
0
0
0
0
0
0
0
0
0
0
0
0
0
0
0
0
0
0
0
0
0
0
0
0
0
0
0
0
0
0
0
0
0
0
0
0
0
0
0
0
0
0
0
0
0
0
0
0
0
0
0
0
0
0
0
0
0
0
0
0
0
0
0
0
0
0
0
0
0
0
0
0
0
0
0
0
0
0
0
0
0
0
0
0
0
0
0
0
0
0
0
0
0
0
0
0
0
0
0
0
0
0
0
0
0
0
0
0
0
0
0
0
0
0
0
0
0
0
0
0
0
0
0
0
0
0
0
0
0
0
0
0
0
0
0
0
0
0
0
0
0
0
0
0
0
0
0
0
0
0
0
0
0
0
0
0
0
0
0
0
0
0
0
0
0
0
0
0
0
0
0
0
0
0
0
0
0
0
0
0
0
0
0
0
0
0
0
0
0
0
0
0
0
0
0
0
0
0
0
0
0
0
0
0
0
0
0
0
0
0
0
0
0
0
0
0
0
0
0
0
0
0
0
0
0
0
0
0
0
0
0
0
0
0
0
0
0
0
0
0
0
0
0
0
0
0
0
0
0
0
0
0
0
0
0
0
0
0
0
0
0
0
0
0
0
0
0
0
0
0
0
0
0
0
0
0
0
0
0
0
0
0
0
0
0
0
0
0
0
0
0
0
0
0
0
0
0
0
0
0
0
0
0
0
0
0
0
0
0
0
0
0
0
0
0
0
0
0
0
0
0
0
0
0
0
0
0
0
0
0
0
0
0
0
0
0
0
0
0
0
0
0
0
0
0
0
0
0
0
0
0
0
0
0
0
0
0
0
0
0
0
0
0
0
0
0
0
0
0
0
0
0
0
0
0
0
0
0
0
0
0
0
0
0
0
0
0
0
0
0
0
0
0
0
0
0
0
1
1
1
1
1
1
1
1
1
1
1
1
1
1
1
1
1
1
1
1
1
1
1
1
1
1
1
1
1
1
1
1
1
1
1
1
1
1
1
1
1
1
1
1
1
1
1
1
1
1
1
1
1
1
1
1
1
1
1
1
1
1
1
1
1
1
1
1
1
1
1
1
1
1
1
1
1
1
1
1
1
1
1
1
1
1
1
1
1
1
1
1
1
1
1
1
1
1
1
1
1
1
1
1
1
1
1
1
1
1
1
1
1
1
1
1
1
1
1
1
1
1
1
1
1
1
1
1
1
1
1
1
1
1
1
1
1
1
1
1
1
1
1
1
1
1
1
1
1
1
1
1
1
1
1
1
1
1
1
1
1
1
1
1
1
1
1
1
1
1
1
1
1
1
1
1
1
1
1
1
1
1
1
1
1
1
1
1
1
1
1
1
1
1
1
1
1
1
1
1
1
1
1
1
1
1
1
1
1
1
1
1
1
1
1
1
1
1
1
1
1
1
1
1
1
1
1
1
1
1
1
1
1
1
1
1
1
1
1
1
1
1
1
1
1
1
1
1
1
1
1
1
1
1
1
1
1
1
1
1
1
1
1
1
1
1
1
1
1
1
1
1
1
1
1
1
1
1
1
1
1
1
1
1
1
1
1
1
1
1
1
1
1
1
1
1
1
1
1
1
VECTORS velocity float
0.000000 0.195700 0.100000
0.000000 -0.186000 0.100000
0.000000 -0.141400 0.100000
0.000000 0.076500 0.100000
0.000000 -0.083600 0.100000
0.000000 0.014000 0.100000
0.000000 -0.191700 0.100000
0.000000 0.141200 0.100000
0.000000 -0.167800 0.100000
0.000000 0.090600 0.100000
0.000000 -0.176600 0.100000
0.000000 -0.160700 0.100000
0.000000 0.011000 0.100000
0.000000 0.159400 0.100000
0.000000 0.051500 0.100000
0.000000 0.001600 0.100000
0.000000 0.088500 0.100000
0.009900 -0.083200 0.100000
0.068200 0.042600 0.100000
0.128900 0.039000 0.100000
0.000000 0.076100 0.100000
0.000000 0.163200 0.100000
0.000000 0.188000 0.100000
0.000000 0.039000 0.100000
0.000000 0.000600 0.100000
0.000000 0.173400 0.100000
0.000000 0.158500 0.100000
0.000000 0.133600 0.100000
0.000000 -0.022900 0.100000
0.000000 0.061600 0.100000
0.000000 0.027100 0.100000
0.000000 0.109800 0.100000
0.000000 0.120100 0.100000
0.000000 0.057300 0.100000
0.000000 0.108800 0.100000
0.000000 -0.105400 0.100000
0.000000 -0.049200 0.100000
0.014400 -0.104000 0.100000
0.080000 -0.120700 0.100000
0.122300 0.161400 0.100000
0.000000 0.183200 0.100000
0.000000 -0.193100 0.100000
0.000000 -0.027700 0.100000
0.000000 -0.040600 0.100000
0.000000 0.084200 0.100000
0.000000 0.167100 0.100000
0.000000 0.107200 0.100000
0.000000 -0.003100 0.100000
0.000000 0.084300 0.100000
0.000000 -0.181900 0.100000
0.000000 -0.070300 0.100000
0.000000 0.097500 0.100000
0.000000 -0.174300 0.100000
0.000000 -0.171200 0.100000
0.000000 -0.158500 0.100000
0.000000 0.065500 0.100000
0.000000 0.083500 0.100000
0.009800 0.170200 0.100000
0.073000 -0.138200 0.100000
0.132500 0.134100 0.100000
0.000000 0.188400 0.100000
0.000000 0.017000 0.100000
0.000000 -0.178800 0.100000
0.000000 0.115800 0.100000
0.000000 -0.096200 0.100000
0.000000 -0.017800 0.100000
0.000000 0.103000 0.100000
0.000000 -0.078700 0.100000
0.000000 0.036000 0.100000
0.000000 -0.095000 0.100000
0.000000 -0.047300 0.100000
0.000000 0.150700 0.100000
0.000000 -0.000400 0.100000
0.000000 0.068800 0.100000
0.000000 -0.122000 0.100000
0.000000 0.151300 0.100000
0.000000 -0.113600 0.100000
0.019100 -0.122500 0.100000
0.072700 -0.033600 0.100000
0.121800 -0.053200 0.100000
0.000000 -0.154700 0.100000
0.000000 -0.191500 0.100000
0.000000 0.177800 0.100000
0.000000 0.172700 0.100000
0.000000 0.092800 0.100000
0.000000 0.154600 0.100000
0.000000 -0.191100 0.100000
0.000000 0.122700 0.100000
0.000000 0.163900 0.100000
0.000000 -0.001100 0.100000
0.000000 0.142000 0.100000
0.000000 -0.080500 0.100000
0.000000 -0.132300 0.100000
0.000000 -0.053100 0.100000
0.000000 -0.059000 0.100000
0.000000 0.036900 0.100000
0.000000 0.066000 0.100000
0.011100 0.075900 0.100000
0.074700 0.172300 0.100000
0.128900 -0.027400 0.100000
0.000000 0.016200 0.100000
0.000000 0.093700 0.100000
0.000000 0.094900 0.100000
0.000000 0.129400 0.100000
0.000000 -0.154900 0.100000
0.000000 0.026100 0.100000
0.000000 -0.073300 0.100000
0.000000 -0.157700 0.100000
0.000000 0.144100 0.100000
0.000000 -0.087500 0.100000
0.000000 0.062200 0.100000
0.000000 0.186200 0.100000
0.000000 -0.073700 0.100000
0.000000 -0.161400 0.100000
0.000000 0.001000 0.100000
0.000000 -0.165200 0.100000
0.000000 -0.135000 0.100000
0.021600 0.116000 0.100000
0.065700 0.177300 0.100000
0.125800 0.039700 0.100000
0.000000 -0.036400 0.100000
0.000000 -0.178200 0.100000
0.000000 0.112500 0.100000
0.000000 0.017000 0.100000
0.000000 0.007800 0.100000
0.000000 0.196900 0.100000
0.000000 0.053000 0.100000
0.000000 0.069900 0.100000
0.000000 -0.091500 0.100000
0.000000 -0.002900 0.100000
0.000000 0.059500 0.100000
0.000000 -0.093800 0.100000
0.000000 0.080400 0.100000
0.000000 -0.107100 0.100000
0.000000 0.086000 0.100000
0.000000 0.140000 0.100000
0.000000 0.082200 0.100000
0.021900 -0.189400 0.100000
0.067300 0.145500 0.100000
0.117700 -0.183400 0.100000
0.000000 -0.036800 0.100000
0.000000 -0.020300 0.100000
0.000000 0.048400 0.100000
0.000000 -0.065500 0.100000
0.000000 0.073300 0.100000
0.000000 0.194600 0.100000
0.000000 0.146900 0.100000
0.000000 0.081100 0.100000
0.000000 -0.110900 0.100000
0.000000 -0.082700 0.100000
0.000000 0.153200 0.100000
0.000000 -0.001400 0.100000
0.000000 -0.130500 0.100000
0.000000 -0.035900 0.100000
0.000000 0.118200 0.100000
0.000000 0.121000 0.100000
0.000000 -0.030100 0.100000
0.024000 0.040000 0.100000
0.069300 0.006600 0.100000
0.120200 0.073600 0.100000
0.000000 -0.088700 0.100000
0.000000 0.045600 0.100000
0.000000 -0.197900 0.100000
0.000000 0.007100 0.100000
0.000000 -0.013000 0.100000
0.000000 -0.072700 0.100000
0.000000 0.181300 0.100000
0.000000 0.062700 0.100000
0.000000 0.086800 0.100000
0.000000 -0.114600 0.100000
0.000000 -0.148600 0.100000
0.000000 0.118100 0.100000
0.000000 -0.142000 0.100000
0.000000 -0.077600 0.100000
0.000000 0.190500 0.100000
0.000000 -0.065300 0.100000
0.000000 -0.103500 0.100000
0.023800 0.048800 0.100000
0.067000 0.047800 0.100000
0.119000 0.084700 0.100000
0.000000 -0.186800 0.100000
0.000000 -0.107100 0.100000
0.000000 -0.155400 0.100000
0.000000 -0.024500 0.100000
0.000000 0.083600 0.100000
0.000000 -0.077400 0.100000
0.000000 -0.121000 0.100000
0.000000 0.131700 0.100000
0.000000 0.168900 0.100000
0.000000 -0.053500 0.100000
0.000000 -0.050600 0.100000
0.000000 -0.155600 0.100000
0.000000 -0.037900 0.100000
0.000000 -0.093700 0.100000
0.000000 -0.196000 0.100000
0.000000 -0.158300 0.100000
0.000000 0.023300 0.100000
0.020000 0.139800 0.100000
0.067600 -0.163300 0.100000
0.126600 0.138700 0.100000
0.000000 0.115300 0.100000
0.000000 -0.131900 0.100000
0.000000 0.141100 0.100000
0.000000 -0.081500 0.100000
0.000000 0.173300 0.100000
0.000000 -0.193900 0.100000
0.000000 0.155400 0.100000
0.000000 -0.011300 0.100000
0.000000 0.006200 0.100000
0.000000 0.031300 0.100000
0.000000 -0.166400 0.100000
0.000000 -0.009000 0.100000
0.000000 0.112900 0.100000
0.000000 0.014100 0.100000
0.000000 -0.149400 0.100000
0.000000 -0.081000 0.100000
0.000000 -0.033400 0.100000
0.026300 0.100700 0.100000
0.071000 0.116400 0.100000
0.123200 0.165500 0.100000
0.000000 0.140200 0.100000
0.000000 0.117700 0.100000
0.000000 -0.084200 0.100000
0.000000 -0.091600 0.100000
0.000000 -0.080700 0.100000
0.000000 0.142700 0.100000
0.000000 -0.010200 0.100000
0.000000 -0.177600 0.100000
0.000000 0.162400 0.100000
0.000000 -0.009900 0.100000
0.000000 -0.179500 0.100000
0.000000 -0.125300 0.100000
0.000000 0.079000 0.100000
0.000000 0.075900 0.100000
0.000000 0.111200 0.100000
0.000000 -0.139500 0.100000
0.000000 0.186200 0.100000
0.011500 -0.147600 0.100000
0.068900 0.040100 0.100000
0.126800 -0.167400 0.100000
0.000000 0.129600 0.100000
0.000000 0.199900 0.100000
0.000000 -0.072500 0.100000
0.000000 -0.184900 0.100000
0.000000 0.089200 0.100000
0.000000 -0.120400 0.100000
0.000000 0.148500 0.100000
0.000000 0.099800 0.100000
0.000000 0.167100 0.100000
0.000000 0.023800 0.100000
0.000000 0.008500 0.100000
0.000000 0.015300 0.100000
0.000000 0.184100 0.100000
0.000000 0.157900 0.100000
0.000000 -0.021500 0.100000
0.000000 0.188500 0.100000
0.000000 -0.105900 0.100000
0.022800 0.192100 0.100000
0.063500 0.017600 0.100000
0.126200 -0.054000 0.100000
0.000000 0.080100 0.100000
0.000000 -0.136200 0.100000
0.000000 -0.045200 0.100000
0.000000 0.022500 0.100000
0.000000 -0.001900 0.100000
0.000000 -0.042700 0.100000
0.000000 -0.196300 0.100000
0.000000 0.076000 0.100000
0.000000 -0.068000 0.100000
0.000000 -0.112100 0.100000
0.000000 -0.102100 0.100000
0.000000 -0.127800 0.100000
0.000000 0.059200 0.100000
0.000000 -0.058800 0.100000
0.000000 -0.067900 0.100000
0.000000 -0.164100 0.100000
0.000000 -0.077800 0.100000
0.023700 0.103600 0.100000
0.063800 0.141900 0.100000
0.133300 0.163200 0.100000
0.000000 0.082400 0.100000
0.000000 0.138400 0.100000
0.000000 -0.193700 0.100000
0.000000 0.020600 0.100000
0.000000 -0.117200 0.100000
0.000000 -0.006400 0.100000
0.000000 -0.182500 0.100000
0.000000 0.150200 0.100000
0.000000 -0.196000 0.100000
0.000000 0.175500 0.100000
0.000000 -0.197000 0.100000
0.000000 0.181900 0.100000
0.000000 -0.126700 0.100000
0.000000 0.119500 0.100000
0.000000 0.098800 0.100000
0.000000 -0.053400 0.100000
0.000000 -0.044800 0.100000
0.016200 0.033800 0.100000
0.080500 -0.159700 0.100000
0.131300 0.072300 0.100000
0.000000 -0.130900 0.100000
0.000000 0.099500 0.100000
0.000000 -0.139500 0.100000
0.000000 -0.177000 0.100000
0.000000 -0.013500 0.100000
0.000000 -0.065600 0.100000
0.000000 0.026600 0.100000
0.000000 0.059600 0.100000
0.000000 0.176900 0.100000
0.000000 0.019700 0.100000
0.000000 -0.172300 0.100000
0.000000 0.139800 0.100000
0.000000 0.196300 0.100000
0.000000 0.198000 0.100000
0.000000 0.133400 0.100000
0.000000 0.144500 0.100000
0.000000 -0.039600 0.100000
0.022900 0.166900 0.100000
0.072100 -0.066500 0.100000
0.122200 0.153700 0.100000
0.000000 0.099000 0.100000
0.000000 -0.019800 0.100000
0.000000 0.128900 0.100000
0.000000 0.084800 0.100000
0.000000 -0.143200 0.100000
0.000000 -0.024600 0.100000
0.000000 -0.051600 0.100000
0.000000 0.157300 0.100000
0.000000 -0.151100 0.100000
0.000000 -0.042100 0.100000
0.000000 -0.175300 0.100000
0.000000 0.009900 0.100000
0.000000 0.066900 0.100000
0.000000 0.134500 0.100000
0.000000 -0.142200 0.100000
0.000000 -0.036900 0.100000
0.000000 0.156300 0.100000
0.011700 0.149000 0.100000
0.076500 0.036100 0.100000
0.126400 0.089500 0.100000
0.000000 -0.131000 0.100000
0.000000 -0.138700 0.100000
0.000000 0.077900 0.100000
0.000000 0.011100 0.100000
0.000000 0.154400 0.100000
0.000000 -0.139300 0.100000
0.000000 -0.128900 0.100000
0.000000 -0.157900 0.100000
0.000000 -0.186700 0.100000
0.000000 -0.033900 0.100000
0.000000 0.036700 0.100000
0.000000 0.061100 0.100000
0.000000 -0.140800 0.100000
0.000000 -0.007100 0.100000
0.000000 -0.077900 0.100000
0.000000 -0.085900 0.100000
0.000000 -0.146400 0.100000
0.014800 -0.040400 0.100000
0.069400 -0.189200 0.100000
0.121000 -0.008700 0.100000
0.000000 -0.044500 0.100000
0.000000 -0.186100 0.100000
0.000000 -0.174200 0.100000
0.000000 -0.122600 0.100000
0.000000 0.139800 0.100000
0.000000 0.000700 0.100000
0.000000 0.135200 0.100000
0.000000 0.069500 0.100000
0.000000 -0.161700 0.100000
0.000000 0.118800 0.100000
0.000000 0.176800 0.100000
0.000000 0.047100 0.100000
0.000000 0.031300 0.100000
0.000000 -0.005100 0.100000
0.000000 -0.051100 0.100000
0.000000 -0.100300 0.100000
0.000000 -0.072700 0.100000
0.016500 0.002900 0.100000
0.072300 0.040400 0.100000
0.125100 -0.166500 0.100000
0.000000 -0.195200 0.100000
0.000000 -0.165700 0.100000
0.000000 0.100100 0.100000
0.000000 0.153200 0.100000
0.000000 0.118400 0.100000
0.000000 0.032000 0.100000
0.000000 -0.181400 0.100000
0.000000 -0.129900 0.100000
0.000000 0.157200 0.100000
0.000000 0.112500 0.100000
0.000000 0.069200 0.100000
0.000000 -0.142700 0.100000
0.000000 -0.152300 0.100000
0.000000 -0.104600 0.100000
0.000000 0.160300 0.100000
0.000000 -0.091500 0.100000
0.000000 0.027500 0.100000
0.024100 -0.147000 0.100000
0.077100 0.028300 0.100000
0.118000 -0.184500 0.100000
0.000000 -0.027000 0.100000
0.000000 -0.094000 0.100000
0.000000 -0.032400 0.100000
0.000000 -0.193800 0.100000
0.000000 -0.109800 0.100000
0.000000 -0.188800 0.100000
0.000000 -0.121200 0.100000
0.000000 -0.062100 0.100000
0.000000 -0.121200 0.100000
0.000000 0.166100 0.100000
0.000000 -0.164200 0.100000
0.000000 -0.130200 0.100000
0.000000 -0.018300 0.100000
0.000000 -0.072800 0.100000
0.000000 -0.062400 0.100000
0.000000 0.177100 0.100000
0.000000 0.053800 0.100000
0.012500 0.161000 0.100000
0.070800 -0.064500 0.100000
0.120300 0.146500 0.100000
0.000000 -0.161000 0.100000
0.000000 -0.110800 0.100000
0.000000 0.192200 0.100000
0.000000 -0.032900 0.100000
0.000000 0.056700 0.100000
0.000000 -0.168900 0.100000
0.000000 0.092800 0.100000
0.000000 -0.167800 0.100000
0.000000 0.030100 0.100000
0.000000 -0.199700 0.100000
0.000000 -0.137900 0.100000
0.000000 0.120400 0.100000
0.000000 0.148000 0.100000
0.000000 -0.068100 0.100000
0.000000 0.034400 0.100000
0.000000 0.021300 0.100000
0.000000 -0.050200 0.100000
0.024500 0.118300 0.100000
0.079500 -0.143000 0.100000
0.127600 -0.117300 0.100000
0.000000 -0.036500 0.100000
0.000000 -0.184100 0.100000
0.000000 -0.043500 0.100000
0.000000 0.161300 0.100000
0.000000 -0.120600 0.100000
0.000000 0.053300 0.100000
0.000000 0.059800 0.100000
0.000000 -0.129200 0.100000
0.000000 -0.168200 0.100000
0.000000 0.098300 0.100000
0.000000 -0.188100 0.100000
0.000000 -0.150200 0.100000
0.000000 0.102700 0.100000
0.000000 -0.197700 0.100000
0.000000 -0.160400 0.100000
0.000000 -0.159700 0.100000
0.000000 0.085300 0.100000
0.010100 -0.163800 0.100000
0.064500 -0.128700 0.100000
0.122600 -0.025300 0.100000
0.000000 -0.151400 0.100000
0.000000 0.067700 0.100000
0.000000 -0.140600 0.100000
0.000000 0.157300 0.100000
0.000000 0.064100 0.100000
0.000000 0.000400 0.100000
0.000000 -0.169000 0.100000
0.000000 0.082600 0.100000
0.000000 0.016600 0.100000
0.000000 -0.159200 0.100000
0.000000 0.127200 0.100000
0.000000 0.155700 0.100000
0.000000 -0.024500 0.100000
0.000000 0.107400 0.100000
0.000000 -0.148300 0.100000
0.000000 0.018700 0.100000
0.000000 -0.061900 0.100000
0.014000 -0.042000 0.100000
0.070200 0.123800 0.100000
0.123800 0.150300 0.100000
0.000000 0.066100 0.100000
0.000000 -0.013500 0.100000
0.000000 0.101700 0.100000
0.000000 0.199000 0.100000
0.000000 -0.117800 0.100000
0.000000 0.079300 0.100000
0.000000 0.038600 0.100000
0.000000 -0.089700 0.100000
0.000000 -0.055200 0.100000
0.000000 0.196700 0.100000
0.000000 -0.017400 0.100000
0.000000 -0.122100 0.100000
0.000000 0.174200 0.100000
0.000000 -0.031800 0.100000
0.000000 -0.082100 0.100000
0.000000 0.071700 0.100000
0.000000 -0.142700 0.100000
0.020000 0.134300 0.100000
0.079000 0.073500 0.100000
0.123200 -0.073800 0.100000
0.000000 0.092600 0.100000
0.000000 -0.048000 0.100000
0.000000 -0.165000 0.100000
0.000000 -0.075600 0.100000
0.000000 0.167900 0.100000
0.000000 -0.185900 0.100000
0.000000 -0.087500 0.100000
0.000000 0.144400 0.100000
0.000000 0.148800 0.100000
0.000000 -0.154700 0.100000
0.000000 0.138100 0.100000
0.000000 -0.008500 0.100000
0.000000 -0.083800 0.100000
0.000000 0.158500 0.100000
0.000000 -0.082600 0.100000
0.000000 0.121100 0.100000
0.000000 -0.086600 0.100000
0.016900 -0.178800 0.100000
0.080400 -0.146100 0.100000
0.120800 -0.184700 0.100000
0.000000 0.134600 0.100000
0.000000 -0.055400 0.100000
0.000000 -0.147500 0.100000
0.000000 0.165900 0.100000
0.000000 0.007900 0.100000
0.000000 -0.035500 0.100000
0.000000 -0.105700 0.100000
0.000000 -0.166800 0.100000
0.000000 0.168700 0.100000
0.000000 0.137200 0.100000
0.000000 0.130500 0.100000
0.000000 -0.038300 0.100000
0.000000 -0.034600 0.100000
0.000000 0.042100 0.100000
0.000000 -0.197100 0.100000
0.000000 0.050700 0.100000
0.000000 -0.066500 0.100000
0.018100 -0.071700 0.100000
0.075700 -0.031700 0.100000
0.119400 -0.001400 0.100000
0.000000 -0.196000 0.100000
0.000000 0.114800 0.100000
0.000000 0.083600 0.100000
0.000000 0.165300 0.100000
0.000000 -0.049000 0.100000
0.000000 -0.177600 0.100000
0.000000 -0.066000 0.100000
0.000000 0.143300 0.100000
0.000000 -0.155000 0.100000
0.000000 -0.067500 0.100000
0.000000 0.052700 0.100000
0.000000 0.094400 0.100000
0.000000 -0.090700 0.100000
0.000000 -0.172200 0.100000
0.000000 0.142900 0.100000
0.000000 -0.185400 0.100000
0.000000 -0.199900 0.100000
0.026700 0.107100 0.100000
0.073300 0.156900 0.100000
0.121300 0.098800 0.100000
0.000000 0.056200 0.100000
0.000000 -0.031200 0.100000
0.000000 0.069800 0.100000
0.000000 -0.024400 0.100000
0.000000 -0.159100 0.100000
0.000000 -0.188100 0.100000
0.000000 0.067000 0.100000
0.000000 0.077000 0.100000
0.000000 -0.146600 0.100000
0.000000 -0.068600 0.100000
0.000000 -0.008400 0.100000
0.000000 0.170700 0.100000
0.000000 -0.011300 0.100000
0.000000 0.013400 0.100000
0.000000 -0.058100 0.100000
0.000000 0.038400 0.100000
0.000000 0.060900 0.100000
0.009900 -0.081600 0.100000
0.080300 0.114300 0.100000
0.123100 0.022700 0.100000
0.000000 -0.002400 0.100000
0.000000 0.115000 0.100000
0.000000 0.130500 0.100000
0.000000 0.193600 0.100000
0.000000 -0.060000 0.100000
0.000000 -0.053600 0.100000
0.000000 -0.061200 0.100000
0.000000 -0.058800 0.100000
0.000000 0.097300 0.100000
0.000000 0.066200 0.100000
0.000000 -0.022000 0.100000
0.000000 -0.039500 0.100000
0.000000 0.136200 0.100000
0.000000 -0.175400 0.100000
0.000000 0.175000 0.100000
0.000000 0.041500 0.100000
0.000000 0.117800 0.100000
0.025800 -0.105000 0.100000
0.069800 -0.195900 0.100000
0.132200 0.040300 0.100000
0.000000 0.069800 0.100000
0.000000 0.069600 0.100000
0.000000 -0.124400 0.100000
0.000000 0.108800 0.100000
0.000000 0.162100 0.100000
0.000000 0.070400 0.100000
0.000000 0.025300 0.100000
0.000000 -0.084300 0.100000
0.000000 -0.063800 0.100000
0.000000 0.086500 0.100000
0.000000 0.044800 0.100000
0.000000 -0.042000 0.100000
0.000000 -0.120700 0.100000
0.000000 0.081100 0.100000
0.000000 0.008000 0.100000